{
  "element": {
    "atomic_number": "31",
    "symbol": "Ga",
    "name": "Gallium",
    "atomic_mass": "69.723",
    "category": "Post-transition metal",
    "standard_state": "Solid",
    "electron_configuration": "[Ar]4s2 3d10 4p1",
    "electronegativity": "1.81",
    "melting_point": "302.91 K",
    "boiling_point": "2477 K",
    "density": "5.91",
    "oxidation_states": "+3",
    "year_discovered": "1875",
    "updated_at": "2026-01-30T02:57:16.539Z"
  }
}