{
  "element": {
    "atomic_number": "28",
    "symbol": "Ni",
    "name": "Nickel",
    "atomic_mass": "58.693",
    "category": "Transition metal",
    "standard_state": "Solid",
    "electron_configuration": "[Ar]4s2 3d8",
    "electronegativity": "1.91",
    "melting_point": "1728 K",
    "boiling_point": "3186 K",
    "density": "8.912",
    "oxidation_states": "+3, +2",
    "year_discovered": "1751",
    "updated_at": "2026-01-27T02:46:30.602Z"
  }
}