{
  "element": {
    "atomic_number": "33",
    "symbol": "As",
    "name": "Arsenic",
    "atomic_mass": "74.92159",
    "category": "Metalloid",
    "standard_state": "Solid",
    "electron_configuration": "[Ar]4s2 3d10 4p3",
    "electronegativity": "2.18",
    "melting_point": "1090 K",
    "boiling_point": "887 K",
    "density": "5.776",
    "oxidation_states": "+5, +3, -3",
    "year_discovered": "Ancient",
    "updated_at": "2026-02-01T03:04:07.811Z"
  }
}