{
  "element": {
    "atomic_number": "29",
    "symbol": "Cu",
    "name": "Copper",
    "atomic_mass": "63.55",
    "category": "Transition metal",
    "standard_state": "Solid",
    "electron_configuration": "[Ar]4s1 3d10",
    "electronegativity": "1.9",
    "melting_point": "1357.77 K",
    "boiling_point": "2835 K",
    "density": "8.933",
    "oxidation_states": "+2, +1",
    "year_discovered": "Ancient",
    "updated_at": "2026-01-28T02:44:07.605Z"
  }
}