{
  "element": {
    "atomic_number": "20",
    "symbol": "Ca",
    "name": "Calcium",
    "atomic_mass": "40.08",
    "category": "Alkaline earth metal",
    "standard_state": "Solid",
    "electron_configuration": "[Ar]4s2",
    "electronegativity": "1",
    "melting_point": "1115 K",
    "boiling_point": "1757 K",
    "density": "1.54",
    "oxidation_states": "+2",
    "year_discovered": "Ancient",
    "updated_at": "2026-01-19T02:46:29.831Z"
  }
}