{
  "element": {
    "atomic_number": "96",
    "symbol": "Cm",
    "name": "Curium",
    "atomic_mass": "247.07035",
    "category": "Actinide",
    "standard_state": "Solid",
    "electron_configuration": "[Rn]7s2 5f7 6d1",
    "electronegativity": "1.3",
    "melting_point": "1618 K",
    "boiling_point": "3400 K",
    "density": "13.51",
    "oxidation_states": "+3",
    "year_discovered": "1944",
    "updated_at": "2026-01-17T15:02:01.452Z"
  }
}