{
  "element": {
    "atomic_number": "19",
    "symbol": "K",
    "name": "Potassium",
    "atomic_mass": "39.0983",
    "category": "Alkali metal",
    "standard_state": "Solid",
    "electron_configuration": "[Ar]4s1",
    "electronegativity": "0.82",
    "melting_point": "336.53 K",
    "boiling_point": "1032 K",
    "density": "0.89",
    "oxidation_states": "+1",
    "year_discovered": "1807",
    "updated_at": "2026-01-18T02:47:38.672Z"
  }
}