{
  "element": {
    "atomic_number": "100",
    "symbol": "Fm",
    "name": "Fermium",
    "atomic_mass": "257.09511",
    "category": "Actinide",
    "standard_state": "Solid",
    "electron_configuration": "[Rn] 5f12 7s2",
    "electronegativity": "1.3",
    "melting_point": "1800 K",
    "boiling_point": "N/A",
    "density": "N/A",
    "oxidation_states": "+3",
    "year_discovered": "1952",
    "updated_at": "2026-01-17T19:01:20.989Z"
  }
}