{
  "element": {
    "atomic_number": "97",
    "symbol": "Bk",
    "name": "Berkelium",
    "atomic_mass": "247.07031",
    "category": "Actinide",
    "standard_state": "Solid",
    "electron_configuration": "[Rn]7s2 5f9",
    "electronegativity": "1.3",
    "melting_point": "1323 K",
    "boiling_point": "N/A",
    "density": "14",
    "oxidation_states": "+4, +3",
    "year_discovered": "1949",
    "updated_at": "2026-01-17T16:01:30.333Z"
  }
}