{
  "element": {
    "atomic_number": "18",
    "symbol": "Ar",
    "name": "Argon",
    "atomic_mass": "39.9",
    "category": "Noble gas",
    "standard_state": "Gas",
    "electron_configuration": "[Ne]3s2 3p6",
    "electronegativity": "N/A",
    "melting_point": "83.8 K",
    "boiling_point": "87.3 K",
    "density": "0.0017837",
    "oxidation_states": "0",
    "year_discovered": "1894",
    "updated_at": "2026-01-17T05:52:59.632Z"
  }
}