{
  "element": {
    "atomic_number": "99",
    "symbol": "Es",
    "name": "Einsteinium",
    "atomic_mass": "252.0830",
    "category": "Actinide",
    "standard_state": "Solid",
    "electron_configuration": "[Rn]7s2 5f11",
    "electronegativity": "1.3",
    "melting_point": "1133 K",
    "boiling_point": "N/A",
    "density": "N/A",
    "oxidation_states": "+3",
    "year_discovered": "1952",
    "updated_at": "2026-01-17T18:01:40.297Z"
  }
}