{
  "element": {
    "atomic_number": "59",
    "symbol": "Pr",
    "name": "Praseodymium",
    "atomic_mass": "140.90766",
    "category": "Lanthanide",
    "standard_state": "Solid",
    "electron_configuration": "[Xe]6s2 4f3",
    "electronegativity": "1.13",
    "melting_point": "1204 K",
    "boiling_point": "3793 K",
    "density": "6.77",
    "oxidation_states": "+3",
    "year_discovered": "1885",
    "updated_at": "2026-01-25T04:02:06.578Z"
  }
}