{
  "element": {
    "atomic_number": "98",
    "symbol": "Cf",
    "name": "Californium",
    "atomic_mass": "251.07959",
    "category": "Actinide",
    "standard_state": "Solid",
    "electron_configuration": "[Rn]7s2 5f10",
    "electronegativity": "1.3",
    "melting_point": "1173 K",
    "boiling_point": "N/A",
    "density": "N/A",
    "oxidation_states": "+3",
    "year_discovered": "1950",
    "updated_at": "2026-01-17T17:01:22.675Z"
  }
}